 Gaussian 09, Revision B.01,
 Gaussian 09:  EM64L-G09RevB.01 12-Aug-2010

 -----------------------
 #n B3LYP/aug-cc-pVTZ SP
 -----------------------

 -------
 water_2
 -------
 Symbolic Z-matrix:
 Charge =  0 Multiplicity = 1

                         Standard orientation:
 ---------------------------------------------------------------------
 Center     Atomic      Atomic             Coordinates (Angstroms)
 Number     Number       Type             X           Y           Z
 ---------------------------------------------------------------------
      1          8           0        1.294984   -0.082996   -0.056902
      2          1           0        1.195770    0.856036   -0.217568
      3          1           0        0.698464   -0.266315    0.669743
      4          8           0       -1.306037    0.082459   -0.039993
      5          1           0       -0.584479    0.265011    0.562900
      6          1           0       -1.221329   -0.850440   -0.239917
 ---------------------------------------------------------------------

 SCF Done:  E(RB3LYP) =  -152.910557543     A.U. after    9 cycles

 The electronic state is 1-A.
 Alpha  occ. eigenvalues --  -19.15348 -19.14364  -1.05270  -1.02256  -0.57070
 Alpha  occ. eigenvalues --   -0.54655  -0.42751  -0.39711  -0.35100  -0.31412
 Alpha virt. eigenvalues --   -0.04162   0.00662   0.01893   0.02631   0.06216
 Alpha virt. eigenvalues --    0.09324   0.09510   0.10057   0.10578   0.12347
 Alpha virt. eigenvalues --    0.12763   0.13293   0.15600   0.17433   0.19296

 Mulliken atomic charges:
              1
     1  O   -0.343356
     2  H    0.189304
     3  H    0.169165
     4  O   -0.354459
     5  H    0.150847
     6  H    0.188499
 Sum of Mulliken atomic charges =   0.00000

 Dipole moment (field-independent basis, Debye):
    X=              0.2732    Y=             -0.0060    Z=              1.1645  Tot=              1.1961
 Quadrupole moment (field-independent basis, Debye-Ang):
   XX=            -19.3768   YY=            -10.8221   ZZ=            -13.0402
   XY=              3.7787   XZ=              0.3547   YZ=             -0.0289

 Normal termination of Gaussian 09 at Wed Jun 12 14:21:36 2019.
